<?xml version="1.0"?>
<VTKFile type="UnstructuredGrid" version="0.1" byte_order="LittleEndian">
  <UnstructuredGrid>
    <Piece NumberOfPoints="24" NumberOfCells="6">
      <Points>
        <DataArray type="Float32" Name="Position" NumberOfComponents="3" format="ascii">
            0.00000000e+00   0.00000000e+00   0.00000000e+00
            1.00000000e+00   0.00000000e+00   1.00000000e+00
            1.00000000e+00   0.00000000e+00   0.00000000e+00
            1.00000000e+00   1.00000000e+00   1.00000000e+00
            0.00000000e+00   0.00000000e+00   0.00000000e+00
            1.00000000e+00   0.00000000e+00   0.00000000e+00
            1.00000000e+00   1.00000000e+00   0.00000000e+00
            1.00000000e+00   1.00000000e+00   1.00000000e+00
            0.00000000e+00   0.00000000e+00   0.00000000e+00
            1.00000000e+00   1.00000000e+00   0.00000000e+00
            0.00000000e+00   1.00000000e+00   0.00000000e+00
            1.00000000e+00   1.00000000e+00   1.00000000e+00
            0.00000000e+00   0.00000000e+00   0.00000000e+00
            0.00000000e+00   1.00000000e+00   0.00000000e+00
            0.00000000e+00   1.00000000e+00   1.00000000e+00
            1.00000000e+00   1.00000000e+00   1.00000000e+00
            0.00000000e+00   0.00000000e+00   0.00000000e+00
            0.00000000e+00   1.00000000e+00   1.00000000e+00
            0.00000000e+00   0.00000000e+00   1.00000000e+00
            1.00000000e+00   1.00000000e+00   1.00000000e+00
            0.00000000e+00   0.00000000e+00   0.00000000e+00
            0.00000000e+00   0.00000000e+00   1.00000000e+00
            1.00000000e+00   0.00000000e+00   1.00000000e+00
            1.00000000e+00   1.00000000e+00   1.00000000e+00
        </DataArray>
      </Points>
      <Cells>
        <DataArray type="Int32" Name="connectivity" format="ascii">
          0 1 2 3
          4 5 6 7
          8 9 10 11
          12 13 14 15
          16 17 18 19
          20 21 22 23
        </DataArray>
        <DataArray type="Int32" Name="offsets" format="ascii">
          4 8 12 16 20 24
        </DataArray>
        <DataArray type="UInt8" Name="types" format="ascii">
          10 10 10 10 10 10
        </DataArray>
      </Cells>
      <CellData Scalars="treeid,mpirank">
        <DataArray type="Int32" Name="treeid" format="ascii">
          0 1 2 3 4 5
        </DataArray>
        <DataArray type="Int32" Name="mpirank" format="ascii">
          0 0 0 0 0 0
        </DataArray>
      </CellData>
    </Piece>
  </UnstructuredGrid>
</VTKFile>
